TITLE = Flow
VARIABLES = X, Y, u, Exact 
Zone T = psi I = 101 J = 101
0.0000000000000000e+00	0.0000000000000000e+00	-4.4193846244620850e-06	-3.9486353196054698e-06
0.0000000000000000e+00	1.0000000000000000e-02	-8.8213279568384753e-06	-7.8816871795643396e-06
0.0000000000000000e+00	2.0000000000000000e-02	-1.3188457537847852e-05	-1.1783633621025823e-05
0.0000000000000000e+00	2.9999999999999999e-02	-1.7503538302191933e-05	-1.5639075444015246e-05
0.0000000000000000e+00	4.0000000000000001e-02	-2.1749540597456873e-05	-1.9432796981041078e-05
0.0000000000000000e+00	5.0000000000000003e-02	-2.5909707392410093e-05	-2.3149826146383198e-05
0.0000000000000000e+00	5.9999999999999998e-02	-2.9967620409298960e-05	-2.6775493524075099e-05
0.0000000000000000e+00	7.0000000000000007e-02	-3.3907264919344517e-05	-3.0295490261386877e-05
0.0000000000000000e+00	8.0000000000000002e-02	-3.7713092945498530e-05	-3.3695924539329916e-05
0.0000000000000000e+00	8.9999999999999997e-02	-4.1370084623283152e-05	-3.6963376397319818e-05
0.0000000000000000e+00	1.0000000000000001e-01	-4.4863807477234234e-05	-4.0084950695629857e-05
0.0000000000000000e+00	1.1000000000000000e-01	-4.8180473379415734e-05	-4.3048328006616265e-05
0.0000000000000000e+00	1.2000000000000000e-01	-5.1306992964724631e-05	-4.5841813233870873e-05
0.0000000000000000e+00	1.3000000000000000e-01	-5.4231027288737821e-05	-4.8454381767423725e-05
0.0000000000000000e+00	1.4000000000000001e-01	-5.6941036523845894e-05	-5.0875722992841902e-05
0.0000000000000000e+00	1.4999999999999999e-01	-5.9426325501670034e-05	-5.3096280982514268e-05
0.0000000000000000e+00	1.6000000000000000e-01	-6.1677085922054152e-05	-5.5107292208532036e-05
0.0000000000000000e+00	1.7000000000000001e-01	-6.3684435061875396e-05	-5.6900820128329744e-05
0.0000000000000000e+00	1.7999999999999999e-01	-6.5440450831167222e-05	-5.8469786506592905e-05
0.0000000000000000e+00	1.9000000000000000e-01	-6.6938203037930221e-05	-5.9807999349819103e-05
0.0000000000000000e+00	2.0000000000000001e-01	-6.8171780738437139e-05	-6.0910177343287392e-05
0.0000000000000000e+00	2.0999999999999999e-01	-6.9136315565118141e-05	-6.1771970693994791e-05
0.0000000000000000e+00	2.2000000000000000e-01	-6.9828000939631846e-05	-6.2389978297301989e-05
0.0000000000000000e+00	2.3000000000000001e-01	-7.0244107095807198e-05	-6.2761761159539536e-05
0.0000000000000000e+00	2.3999999999999999e-01	-7.0382991852772729e-05	-6.2885852023601634e-05
0.0000000000000000e+00	2.5000000000000000e-01	-7.0244107095804122e-05	-6.2761761159539536e-05
0.0000000000000000e+00	2.6000000000000001e-01	-6.9828000939625449e-05	-6.2389978297301989e-05
0.0000000000000000e+00	2.7000000000000002e-01	-6.9136315565121963e-05	-6.1771970693994791e-05
0.0000000000000000e+00	2.8000000000000003e-01	-6.8171780738441869e-05	-6.0910177343287399e-05
0.0000000000000000e+00	2.8999999999999998e-01	-6.6938203037916316e-05	-5.9807999349819110e-05
0.0000000000000000e+00	2.9999999999999999e-01	-6.5440450831171803e-05	-5.8469786506592905e-05
0.0000000000000000e+00	3.1000000000000000e-01	-6.3684435061876142e-05	-5.6900820128329737e-05
0.0000000000000000e+00	3.2000000000000001e-01	-6.1677085922050995e-05	-5.5107292208532022e-05
0.0000000000000000e+00	3.3000000000000002e-01	-5.9426325501667087e-05	-5.3096280982514262e-05
0.0000000000000000e+00	3.4000000000000002e-01	-5.6941036523845542e-05	-5.0875722992841902e-05
0.0000000000000000e+00	3.4999999999999998e-01	-5.4231027288732359e-05	-4.8454381767423725e-05
0.0000000000000000e+00	3.5999999999999999e-01	-5.1306992964728948e-05	-4.5841813233870866e-05
0.0000000000000000e+00	3.7000000000000000e-01	-4.8180473379412583e-05	-4.3048328006616278e-05
0.0000000000000000e+00	3.8000000000000000e-01	-4.4863807477242521e-05	-4.0084950695629877e-05
0.0000000000000000e+00	3.9000000000000001e-01	-4.1370084623279140e-05	-3.6963376397319825e-05
0.0000000000000000e+00	4.0000000000000002e-01	-3.7713092945498265e-05	-3.3695924539329936e-05
0.0000000000000000e+00	4.0999999999999998e-01	-3.3907264919341298e-05	-3.0295490261386894e-05
0.0000000000000000e+00	4.1999999999999998e-01	-2.9967620409299018e-05	-2.6775493524075109e-05
0.0000000000000000e+00	4.2999999999999999e-01	-2.5909707392407348e-05	-2.3149826146383212e-05
0.0000000000000000e+00	4.4000000000000000e-01	-2.1749540597458327e-05	-1.9432796981041085e-05
0.0000000000000000e+00	4.5000000000000001e-01	-1.7503538302189697e-05	-1.5639075444015249e-05
0.0000000000000000e+00	4.6000000000000002e-01	-1.3188457537849420e-05	-1.1783633621025850e-05
0.0000000000000000e+00	4.6999999999999997e-01	-8.8213279568363001e-06	-7.8816871795643565e-06
0.0000000000000000e+00	4.7999999999999998e-01	-4.4193846244623416e-06	-3.9486353196054825e-06
0.0000000000000000e+00	4.8999999999999999e-01	-5.4710418894224722e-21	-7.7012957392357846e-21
0.0000000000000000e+00	5.0000000000000000e-01	4.4193846244630591e-06	3.9486353196054681e-06
0.0000000000000000e+00	5.1000000000000001e-01	8.8213279568365678e-06	7.8816871795643412e-06
0.0000000000000000e+00	5.2000000000000002e-01	1.3188457537846682e-05	1.1783633621025835e-05
0.0000000000000000e+00	5.3000000000000003e-01	1.7503538302193149e-05	1.5639075444015259e-05
0.0000000000000000e+00	5.4000000000000004e-01	2.1749540597454454e-05	1.9432796981041099e-05
0.0000000000000000e+00	5.5000000000000004e-01	2.5909707392410645e-05	2.3149826146383225e-05
0.0000000000000000e+00	5.6000000000000005e-01	2.9967620409300627e-05	2.6775493524075072e-05
0.0000000000000000e+00	5.6999999999999995e-01	3.3907264919342986e-05	3.0295490261386857e-05
0.0000000000000000e+00	5.7999999999999996e-01	3.7713092945505950e-05	3.3695924539329895e-05
0.0000000000000000e+00	5.8999999999999997e-01	4.1370084623276728e-05	3.6963376397319812e-05
0.0000000000000000e+00	5.9999999999999998e-01	4.4863807477237676e-05	4.0084950695629857e-05
0.0000000000000000e+00	6.0999999999999999e-01	4.8180473379418112e-05	4.3048328006616272e-05
0.0000000000000000e+00	6.2000000000000000e-01	5.1306992964725797e-05	4.5841813233870860e-05
0.0000000000000000e+00	6.3000000000000000e-01	5.4231027288737733e-05	4.8454381767423732e-05
0.0000000000000000e+00	6.4000000000000001e-01	5.6941036523851064e-05	5.0875722992841895e-05
0.0000000000000000e+00	6.5000000000000002e-01	5.9426325501661557e-05	5.3096280982514282e-05
0.0000000000000000e+00	6.6000000000000003e-01	6.1677085922067705e-05	5.5107292208532029e-05
0.0000000000000000e+00	6.7000000000000004e-01	6.3684435061878202e-05	5.6900820128329758e-05
0.0000000000000000e+00	6.8000000000000005e-01	6.5440450831167412e-05	5.8469786506592891e-05
0.0000000000000000e+00	6.8999999999999995e-01	6.6938203037934815e-05	5.9807999349819103e-05
0.0000000000000000e+00	6.9999999999999996e-01	6.8171780738440418e-05	6.0910177343287385e-05
0.0000000000000000e+00	7.0999999999999996e-01	6.9136315565121340e-05	6.1771970693994804e-05
0.0000000000000000e+00	7.1999999999999997e-01	6.9828000939635925e-05	6.2389978297301989e-05
0.0000000000000000e+00	7.2999999999999998e-01	7.0244107095812172e-05	6.2761761159539536e-05
0.0000000000000000e+00	7.3999999999999999e-01	7.0382991852765574e-05	6.2885852023601634e-05
0.0000000000000000e+00	7.5000000000000000e-01	7.0244107095815872e-05	6.2761761159539536e-05
0.0000000000000000e+00	7.6000000000000001e-01	6.9828000939628620e-05	6.2389978297301989e-05
0.0000000000000000e+00	7.7000000000000002e-01	6.9136315565125961e-05	6.1771970693994804e-05
0.0000000000000000e+00	7.8000000000000003e-01	6.8171780738440798e-05	6.0910177343287392e-05
0.0000000000000000e+00	7.9000000000000004e-01	6.6938203037920693e-05	5.9807999349819110e-05
0.0000000000000000e+00	8.0000000000000004e-01	6.5440450831171681e-05	5.8469786506592898e-05
0.0000000000000000e+00	8.1000000000000005e-01	6.3684435061884748e-05	5.6900820128329764e-05
0.0000000000000000e+00	8.1999999999999995e-01	6.1677085922051591e-05	5.5107292208532042e-05
0.0000000000000000e+00	8.2999999999999996e-01	5.9426325501671518e-05	5.3096280982514296e-05
0.0000000000000000e+00	8.3999999999999997e-01	5.6941036523844383e-05	5.0875722992841909e-05
0.0000000000000000e+00	8.4999999999999998e-01	5.4231027288742104e-05	4.8454381767423745e-05
0.0000000000000000e+00	8.5999999999999999e-01	5.1306992964722747e-05	4.5841813233870873e-05
0.0000000000000000e+00	8.7000000000000000e-01	4.8180473379406538e-05	4.3048328006616285e-05
0.0000000000000000e+00	8.8000000000000000e-01	4.4863807477243179e-05	4.0084950695629857e-05
0.0000000000000000e+00	8.9000000000000001e-01	4.1370084623275169e-05	3.6963376397319832e-05
0.0000000000000000e+00	9.0000000000000002e-01	3.7713092945506600e-05	3.3695924539329889e-05
0.0000000000000000e+00	9.1000000000000003e-01	3.3907264919340370e-05	3.0295490261386877e-05
0.0000000000000000e+00	9.2000000000000004e-01	2.9967620409303158e-05	2.6775493524075069e-05
0.0000000000000000e+00	9.3000000000000005e-01	2.5909707392406867e-05	2.3149826146383249e-05
0.0000000000000000e+00	9.3999999999999995e-01	2.1749540597457967e-05	1.9432796981041092e-05
0.0000000000000000e+00	9.4999999999999996e-01	1.7503538302189141e-05	1.5639075444015280e-05
0.0000000000000000e+00	9.5999999999999996e-01	1.3188457537847461e-05	1.1783633621025829e-05
0.0000000000000000e+00	9.6999999999999997e-01	8.8213279568381043e-06	7.8816871795643633e-06
0.0000000000000000e+00	9.7999999999999998e-01	4.4193846244625432e-06	3.9486353196054631e-06
1.0000000000000000e-02	0.0000000000000000e+00	-8.8213279568375232e-06	-7.8816871795643396e-06
1.0000000000000000e-02	1.0000000000000000e-02	-1.7607842162309926e-05	-1.5732268940631302e-05
1.0000000000000000e-02	2.0000000000000000e-02	-2.6324866259026134e-05	-2.3520762623579584e-05
1.0000000000000000e-02	2.9999999999999999e-02	-3.4937998135302005e-05	-3.1216430602066916e-05
1.0000000000000000e-02	4.0000000000000001e-02	-4.3413245694599424e-05	-3.8788901590398451e-05
1.0000000000000000e-02	5.0000000000000003e-02	-5.1717161006763260e-05	-4.6208290505116181e-05
1.0000000000000000e-02	5.9999999999999998e-02	-5.9816972311753339e-05	-5.3445316407770096e-05
1.0000000000000000e-02	7.0000000000000007e-02	-6.7680713354803643e-05	-6.0471418063405025e-05
1.0000000000000000e-02	8.0000000000000002e-02	-7.5277349542621103e-05	-6.7258866658706712e-05
1.0000000000000000e-02	8.9999999999999997e-02	-8.2576900422730968e-05	-7.3780875234959799e-05
1.0000000000000000e-02	1.0000000000000001e-01	-8.9550558002693132e-05	-8.0011704403936090e-05
1.0000000000000000e-02	1.1000000000000000e-01	-9.6170800441966678e-05	-8.5926763929500743e-05
1.0000000000000000e-02	1.2000000000000000e-01	-1.0241150066815497e-04	-9.1502709774040004e-05
1.0000000000000000e-02	1.3000000000000000e-01	-1.0824802948855068e-04	-9.6717536226712789e-05
1.0000000000000000e-02	1.4000000000000001e-01	-1.1365735279041285e-04	-1.0155066274993801e-04
1.0000000000000000e-02	1.4999999999999999e-01	-1.1861812244589259e-04	-1.0598301520137395e-04
1.0000000000000000e-02	1.6000000000000000e-01	-1.2311076056353829e-04	-1.0999710111084403e-04
1.0000000000000000e-02	1.7000000000000001e-01	-1.2711753675322685e-04	-1.1357707871512497e-04
1.0000000000000000e-02	1.7999999999999999e-01	-1.3062263809980216e-04	-1.1670881947814885e-04
1.0000000000000000e-02	1.9000000000000000e-01	-1.3361223156959902e-04	-1.1937996384988032e-04
1.0000000000000000e-02	2.0000000000000001e-01	-1.3607451860303297e-04	-1.2157997004381391e-04
1.0000000000000000e-02	2.0999999999999999e-01	-1.3799978167807546e-04	-1.2330015564058938e-04
1.0000000000000000e-02	2.2000000000000000e-01	-1.3938042266091466e-04	-1.2453373185353437e-04
1.0000000000000000e-02	2.3000000000000001e-01	-1.4021099279240974e-04	-1.2527583032090364e-04
1.0000000000000000e-02	2.3999999999999999e-01	-1.4048821419161822e-04	-1.2552352231907910e-04
1.0000000000000000e-02	2.5000000000000000e-01	-1.4021099279237540e-04	-1.2527583032090364e-04
1.0000000000000000e-02	2.6000000000000001e-01	-1.3938042266095017e-04	-1.2453373185353434e-04
1.0000000000000000e-02	2.7000000000000002e-01	-1.3799978167802803e-04	-1.2330015564058938e-04
1.0000000000000000e-02	2.8000000000000003e-01	-1.3607451860304533e-04	-1.2157997004381392e-04
1.0000000000000000e-02	2.8999999999999998e-01	-1.3361223156962770e-04	-1.1937996384988033e-04
1.0000000000000000e-02	2.9999999999999999e-01	-1.3062263809980108e-04	-1.1670881947814885e-04
1.0000000000000000e-02	3.1000000000000000e-01	-1.2711753675321628e-04	-1.1357707871512495e-04
1.0000000000000000e-02	3.2000000000000001e-01	-1.2311076056355490e-04	-1.0999710111084401e-04
1.0000000000000000e-02	3.3000000000000002e-01	-1.1861812244589089e-04	-1.0598301520137394e-04
1.0000000000000000e-02	3.4000000000000002e-01	-1.1365735279040961e-04	-1.0155066274993801e-04
1.0000000000000000e-02	3.4999999999999998e-01	-1.0824802948856718e-04	-9.6717536226712789e-05
1.0000000000000000e-02	3.5999999999999999e-01	-1.0241150066814245e-04	-9.1502709774039990e-05
1.0000000000000000e-02	3.7000000000000000e-01	-9.6170800441974905e-05	-8.5926763929500770e-05
1.0000000000000000e-02	3.8000000000000000e-01	-8.9550558002681193e-05	-8.0011704403936117e-05
1.0000000000000000e-02	3.9000000000000001e-01	-8.2576900422743003e-05	-7.3780875234959813e-05
1.0000000000000000e-02	4.0000000000000002e-01	-7.5277349542625832e-05	-6.7258866658706753e-05
1.0000000000000000e-02	4.0999999999999998e-01	-6.7680713354797436e-05	-6.0471418063405059e-05
1.0000000000000000e-02	4.1999999999999998e-01	-5.9816972311755162e-05	-5.3445316407770116e-05
1.0000000000000000e-02	4.2999999999999999e-01	-5.1717161006763551e-05	-4.6208290505116208e-05
1.0000000000000000e-02	4.4000000000000000e-01	-4.3413245694592702e-05	-3.8788901590398464e-05
1.0000000000000000e-02	4.5000000000000001e-01	-3.4937998135307243e-05	-3.1216430602066916e-05
1.0000000000000000e-02	4.6000000000000002e-01	-2.6324866259024460e-05	-2.3520762623579635e-05
1.0000000000000000e-02	4.6999999999999997e-01	-1.7607842162311604e-05	-1.5732268940631336e-05
1.0000000000000000e-02	4.7999999999999998e-01	-8.8213279568379061e-06	-7.8816871795643650e-06
1.0000000000000000e-02	4.8999999999999999e-01	6.5712914162428137e-19	-1.5372197982576157e-20
1.0000000000000000e-02	5.0000000000000000e-01	8.8213279568360104e-06	7.8816871795643362e-06
1.0000000000000000e-02	5.1000000000000001e-01	1.7607842162310641e-05	1.5732268940631305e-05
1.0000000000000000e-02	5.2000000000000002e-01	2.6324866259033202e-05	2.3520762623579604e-05
1.0000000000000000e-02	5.3000000000000003e-01	3.4937998135298061e-05	3.1216430602066943e-05
1.0000000000000000e-02	5.4000000000000004e-01	4.3413245694603008e-05	3.8788901590398492e-05
1.0000000000000000e-02	5.5000000000000004e-01	5.1717161006762379e-05	4.6208290505116228e-05
1.0000000000000000e-02	5.6000000000000005e-01	5.9816972311742199e-05	5.3445316407770035e-05
1.0000000000000000e-02	5.6999999999999995e-01	6.7680713354804469e-05	6.0471418063404978e-05
1.0000000000000000e-02	5.7999999999999996e-01	7.5277349542610518e-05	6.7258866658706685e-05
1.0000000000000000e-02	5.8999999999999997e-01	8.2576900422742000e-05	7.3780875234959772e-05
1.0000000000000000e-02	5.9999999999999998e-01	8.9550558002695111e-05	8.0011704403936090e-05
1.0000000000000000e-02	6.0999999999999999e-01	9.6170800441943951e-05	8.5926763929500757e-05
1.0000000000000000e-02	6.2000000000000000e-01	1.0241150066815816e-04	9.1502709774039976e-05
1.0000000000000000e-02	6.3000000000000000e-01	1.0824802948855432e-04	9.6717536226712802e-05
1.0000000000000000e-02	6.4000000000000001e-01	1.1365735279041366e-04	1.0155066274993799e-04
1.0000000000000000e-02	6.5000000000000002e-01	1.1861812244589702e-04	1.0598301520137398e-04
1.0000000000000000e-02	6.6000000000000003e-01	1.2311076056353409e-04	1.0999710111084402e-04
1.0000000000000000e-02	6.7000000000000004e-01	1.2711753675322343e-04	1.1357707871512499e-04
1.0000000000000000e-02	6.8000000000000005e-01	1.3062263809980249e-04	1.1670881947814883e-04
1.0000000000000000e-02	6.8999999999999995e-01	1.3361223156959341e-04	1.1937996384988032e-04
1.0000000000000000e-02	6.9999999999999996e-01	1.3607451860302746e-04	1.2157997004381389e-04
1.0000000000000000e-02	7.0999999999999996e-01	1.3799978167809129e-04	1.2330015564058941e-04
1.0000000000000000e-02	7.1999999999999997e-01	1.3938042266088644e-04	1.2453373185353434e-04
1.0000000000000000e-02	7.2999999999999998e-01	1.4021099279240592e-04	1.2527583032090364e-04
1.0000000000000000e-02	7.3999999999999999e-01	1.4048821419162781e-04	1.2552352231907910e-04
1.0000000000000000e-02	7.5000000000000000e-01	1.4021099279237819e-04	1.2527583032090364e-04
1.0000000000000000e-02	7.6000000000000001e-01	1.3938042266092393e-04	1.2453373185353437e-04
1.0000000000000000e-02	7.7000000000000002e-01	1.3799978167804557e-04	1.2330015564058941e-04
1.0000000000000000e-02	7.8000000000000003e-01	1.3607451860303015e-04	1.2157997004381391e-04
1.0000000000000000e-02	7.9000000000000004e-01	1.3361223156960680e-04	1.1937996384988033e-04
1.0000000000000000e-02	8.0000000000000004e-01	1.3062263809980598e-04	1.1670881947814884e-04
1.0000000000000000e-02	8.1000000000000005e-01	1.2711753675321167e-04	1.1357707871512501e-04
1.0000000000000000e-02	8.1999999999999995e-01	1.2311076056355504e-04	1.0999710111084405e-04
1.0000000000000000e-02	8.2999999999999996e-01	1.1861812244588802e-04	1.0598301520137401e-04
1.0000000000000000e-02	8.3999999999999997e-01	1.1365735279040107e-04	1.0155066274993802e-04
1.0000000000000000e-02	8.4999999999999998e-01	1.0824802948855461e-04	9.6717536226712829e-05
1.0000000000000000e-02	8.5999999999999999e-01	1.0241150066816570e-04	9.1502709774040004e-05
1.0000000000000000e-02	8.7000000000000000e-01	9.6170800441955389e-05	8.5926763929500784e-05
1.0000000000000000e-02	8.8000000000000000e-01	8.9550558002696575e-05	8.0011704403936090e-05
1.0000000000000000e-02	8.9000000000000001e-01	8.2576900422738395e-05	7.3780875234959826e-05
1.0000000000000000e-02	9.0000000000000002e-01	7.5277349542617579e-05	6.7258866658706672e-05
1.0000000000000000e-02	9.1000000000000003e-01	6.7680713354797951e-05	6.0471418063405025e-05
1.0000000000000000e-02	9.2000000000000004e-01	5.9816972311749863e-05	5.3445316407770028e-05
1.0000000000000000e-02	9.3000000000000005e-01	5.1717161006761661e-05	4.6208290505116276e-05
1.0000000000000000e-02	9.3999999999999995e-01	4.3413245694596910e-05	3.8788901590398478e-05
1.0000000000000000e-02	9.4999999999999996e-01	3.4937998135307778e-05	3.1216430602066984e-05
1.0000000000000000e-02	9.5999999999999996e-01	2.6324866259027296e-05	2.3520762623579594e-05
1.0000000000000000e-02	9.6999999999999997e-01	1.7607842162309239e-05	1.5732268940631349e-05
1.0000000000000000e-02	9.7999999999999998e-01	8.8213279568379162e-06	7.8816871795643260e-06
2.0000000000000000e-02	0.0000000000000000e+00	-1.3188457537848503e-05	-1.1783633621025823e-05
2.0000000000000000e-02	1.0000000000000000e-02	-2.6324866259021408e-05	-2.3520762623579584e-05
2.0000000000000000e-02	2.0000000000000000e-02	-3.9357382759770848e-05	-3.5165065921672363e-05
2.0000000000000000e-02	2.9999999999999999e-02	-5.2234573651437552e-05	-4.6670588769962782e-05
2.0000000000000000e-02	4.0000000000000001e-02	-6.4905618544600592e-05	-5.7991924126141985e-05
2.0000000000000000e-02	5.0000000000000003e-02	-7.7320510613926763e-05	-6.9084391851785304e-05
2.0000000000000000e-02	5.9999999999999998e-02	-8.9430253952255820e-05	-7.9904215044446103e-05
2.0000000000000000e-02	7.0000000000000007e-02	-1.0118705693502047e-04	-9.0408692805089887e-05
2.0000000000000000e-02	8.0000000000000002e-02	-1.1254452083202624e-04	-1.0055636875903487e-04
2.0000000000000000e-02	8.9999999999999997e-02	-1.2345782292204284e-04	-1.1030719466532295e-04
2.0000000000000000e-02	1.0000000000000001e-01	-1.3388389338746010e-04	-1.1962268846883063e-04
2.0000000000000000e-02	1.1000000000000000e-01	-1.4378158529140597e-04	-1.2846608617135977e-04
2.0000000000000000e-02	1.2000000000000000e-01	-1.5311183696579972e-04	-1.3680248692234264e-04
2.0000000000000000e-02	1.3000000000000000e-01	-1.6183782616981210e-04	-1.4459899075655426e-04
2.0000000000000000e-02	1.4000000000000001e-01	-1.6992511541062623e-04	-1.5182482843524480e-04
2.0000000000000000e-02	1.4999999999999999e-01	-1.7734178785227118e-04	-1.5845148287826769e-04
2.0000000000000000e-02	1.6000000000000000e-01	-1.8405857327706703e-04	-1.6445280170796685e-04
2.0000000000000000e-02	1.7000000000000001e-01	-1.9004896360146298e-04	-1.6980510046066309e-04
2.0000000000000000e-02	1.7999999999999999e-01	-1.9528931749162294e-04	-1.7448725605841229e-04
2.0000000000000000e-02	1.9000000000000000e-01	-1.9975895366492410e-04	-1.7848079017214360e-04
2.0000000000000000e-02	2.0000000000000001e-01	-2.0344023250923785e-04	-1.8176994214718227e-04
2.0000000000000000e-02	2.0999999999999999e-01	-2.0631862569881607e-04	-1.8434173120335340e-04
2.0000000000000000e-02	2.2000000000000000e-01	-2.0838277353082675e-04	-1.8618600766419100e-04
2.0000000000000000e-02	2.3000000000000001e-01	-2.0962452975670969e-04	-1.8729549301307386e-04
2.0000000000000000e-02	2.3999999999999999e-01	-2.1003899373200574e-04	-1.8766580861820560e-04
2.0000000000000000e-02	2.5000000000000000e-01	-2.0962452975674929e-04	-1.8729549301307386e-04
2.0000000000000000e-02	2.6000000000000001e-01	-2.0838277353081179e-04	-1.8618600766419097e-04
2.0000000000000000e-02	2.7000000000000002e-01	-2.0631862569887280e-04	-1.8434173120335340e-04
2.0000000000000000e-02	2.8000000000000003e-01	-2.0344023250921475e-04	-1.8176994214718229e-04
2.0000000000000000e-02	2.8999999999999998e-01	-1.9975895366487558e-04	-1.7848079017214363e-04
2.0000000000000000e-02	2.9999999999999999e-01	-1.9528931749163871e-04	-1.7448725605841229e-04
2.0000000000000000e-02	3.1000000000000000e-01	-1.9004896360147949e-04	-1.6980510046066309e-04
2.0000000000000000e-02	3.2000000000000001e-01	-1.8405857327704199e-04	-1.6445280170796679e-04
2.0000000000000000e-02	3.3000000000000002e-01	-1.7734178785229772e-04	-1.5845148287826769e-04
2.0000000000000000e-02	3.4000000000000002e-01	-1.6992511541059796e-04	-1.5182482843524480e-04
2.0000000000000000e-02	3.4999999999999998e-01	-1.6183782616982801e-04	-1.4459899075655426e-04
2.0000000000000000e-02	3.5999999999999999e-01	-1.5311183696579988e-04	-1.3680248692234261e-04
2.0000000000000000e-02	3.7000000000000000e-01	-1.4378158529140193e-04	-1.2846608617135983e-04
2.0000000000000000e-02	3.8000000000000000e-01	-1.3388389338747663e-04	-1.1962268846883067e-04
2.0000000000000000e-02	3.9000000000000001e-01	-1.2345782292202004e-04	-1.1030719466532296e-04
2.0000000000000000e-02	4.0000000000000002e-01	-1.1254452083202623e-04	-1.0055636875903494e-04
2.0000000000000000e-02	4.0999999999999998e-01	-1.0118705693503640e-04	-9.0408692805089955e-05
2.0000000000000000e-02	4.1999999999999998e-01	-8.9430253952247051e-05	-7.9904215044446130e-05
2.0000000000000000e-02	4.2999999999999999e-01	-7.7320510613938771e-05	-6.9084391851785345e-05
2.0000000000000000e-02	4.4000000000000000e-01	-6.4905618544605756e-05	-5.7991924126142005e-05
2.0000000000000000e-02	4.5000000000000001e-01	-5.2234573651430227e-05	-4.6670588769962789e-05
2.0000000000000000e-02	4.6000000000000002e-01	-3.9357382759771817e-05	-3.5165065921672451e-05
2.0000000000000000e-02	4.6999999999999997e-01	-2.6324866259024887e-05	-2.3520762623579635e-05
2.0000000000000000e-02	4.7999999999999998e-01	-1.3188457537845979e-05	-1.1783633621025863e-05
2.0000000000000000e-02	4.8999999999999999e-01	-8.8460209149506169e-19	-2.2982433183368525e-20
2.0000000000000000e-02	5.0000000000000000e-01	1.3188457537849010e-05	1.1783633621025818e-05
2.0000000000000000e-02	5.1000000000000001e-01	2.6324866259023823e-05	2.3520762623579591e-05
2.0000000000000000e-02	5.2000000000000002e-01	3.9357382759762236e-05	3.5165065921672397e-05
2.0000000000000000e-02	5.3000000000000003e-01	5.2234573651435898e-05	4.6670588769962823e-05
2.0000000000000000e-02	5.4000000000000004e-01	6.4905618544604292e-05	5.7991924126142053e-05
2.0000000000000000e-02	5.5000000000000004e-01	7.7320510613930910e-05	6.9084391851785372e-05
2.0000000000000000e-02	5.6000000000000005e-01	8.9430253952260197e-05	7.9904215044446008e-05
2.0000000000000000e-02	5.6999999999999995e-01	1.0118705693502137e-04	9.0408692805089819e-05
2.0000000000000000e-02	5.7999999999999996e-01	1.1254452083204665e-04	1.0055636875903481e-04
2.0000000000000000e-02	5.8999999999999997e-01	1.2345782292202251e-04	1.1030719466532292e-04
2.0000000000000000e-02	5.9999999999999998e-01	1.3388389338744557e-04	1.1962268846883063e-04
2.0000000000000000e-02	6.0999999999999999e-01	1.4378158529144386e-04	1.2846608617135980e-04
2.0000000000000000e-02	6.2000000000000000e-01	1.5311183696580002e-04	1.3680248692234258e-04
2.0000000000000000e-02	6.3000000000000000e-01	1.6183782616981961e-04	1.4459899075655429e-04
2.0000000000000000e-02	6.4000000000000001e-01	1.6992511541060341e-04	1.5182482843524478e-04
2.0000000000000000e-02	6.5000000000000002e-01	1.7734178785226240e-04	1.5845148287826774e-04
2.0000000000000000e-02	6.6000000000000003e-01	1.8405857327706614e-04	1.6445280170796682e-04
2.0000000000000000e-02	6.7000000000000004e-01	1.9004896360145328e-04	1.6980510046066315e-04
2.0000000000000000e-02	6.8000000000000005e-01	1.9528931749164522e-04	1.7448725605841226e-04
2.0000000000000000e-02	6.8999999999999995e-01	1.9975895366494388e-04	1.7848079017214360e-04
2.0000000000000000e-02	6.9999999999999996e-01	2.0344023250922584e-04	1.8176994214718224e-04
2.0000000000000000e-02	7.0999999999999996e-01	2.0631862569879804e-04	1.8434173120335343e-04
2.0000000000000000e-02	7.1999999999999997e-01	2.0838277353086440e-04	1.8618600766419097e-04
2.0000000000000000e-02	7.2999999999999998e-01	2.0962452975669437e-04	1.8729549301307386e-04
2.0000000000000000e-02	7.3999999999999999e-01	2.1003899373202243e-04	1.8766580861820560e-04
2.0000000000000000e-02	7.5000000000000000e-01	2.0962452975671142e-04	1.8729549301307386e-04
2.0000000000000000e-02	7.6000000000000001e-01	2.0838277353084058e-04	1.8618600766419100e-04
2.0000000000000000e-02	7.7000000000000002e-01	2.0631862569887619e-04	1.8434173120335343e-04
2.0000000000000000e-02	7.8000000000000003e-01	2.0344023250922364e-04	1.8176994214718227e-04
2.0000000000000000e-02	7.9000000000000004e-01	1.9975895366491759e-04	1.7848079017214363e-04
2.0000000000000000e-02	8.0000000000000004e-01	1.9528931749165451e-04	1.7448725605841229e-04
2.0000000000000000e-02	8.1000000000000005e-01	1.9004896360146111e-04	1.6980510046066318e-04
2.0000000000000000e-02	8.1999999999999995e-01	1.8405857327702724e-04	1.6445280170796685e-04
2.0000000000000000e-02	8.2999999999999996e-01	1.7734178785230894e-04	1.5845148287826777e-04
2.0000000000000000e-02	8.3999999999999997e-01	1.6992511541060750e-04	1.5182482843524483e-04
2.0000000000000000e-02	8.4999999999999998e-01	1.6183782616981132e-04	1.4459899075655431e-04
2.0000000000000000e-02	8.5999999999999999e-01	1.5311183696579121e-04	1.3680248692234264e-04
2.0000000000000000e-02	8.7000000000000000e-01	1.4378158529143329e-04	1.2846608617135983e-04
2.0000000000000000e-02	8.8000000000000000e-01	1.3388389338745966e-04	1.1962268846883063e-04
2.0000000000000000e-02	8.9000000000000001e-01	1.2345782292202276e-04	1.1030719466532299e-04
2.0000000000000000e-02	9.0000000000000002e-01	1.1254452083202972e-04	1.0055636875903480e-04
2.0000000000000000e-02	9.1000000000000003e-01	1.0118705693501472e-04	9.0408692805089887e-05
2.0000000000000000e-02	9.2000000000000004e-01	8.9430253952267353e-05	7.9904215044445995e-05
2.0000000000000000e-02	9.3000000000000005e-01	7.7320510613929907e-05	6.9084391851785453e-05
2.0000000000000000e-02	9.3999999999999995e-01	6.4905618544607789e-05	5.7991924126142025e-05
2.0000000000000000e-02	9.4999999999999996e-01	5.2234573651429386e-05	4.6670588769962884e-05
2.0000000000000000e-02	9.5999999999999996e-01	3.9357382759767013e-05	3.5165065921672383e-05
2.0000000000000000e-02	9.6999999999999997e-01	2.6324866259024938e-05	2.3520762623579655e-05
2.0000000000000000e-02	9.7999999999999998e-01	1.3188457537848139e-05	1.1783633621025802e-05
2.9999999999999999e-02	0.0000000000000000e+00	-1.7503538302187901e-05	-1.5639075444015246e-05
2.9999999999999999e-02	1.0000000000000000e-02	-3.4937998135307738e-05	-3.1216430602066916e-05
2.9999999999999999e-02	2.0000000000000000e-02	-5.2234573651441191e-05	-4.6670588769962782e-05
2.9999999999999999e-02	2.9999999999999999e-02	-6.9325003169055585e-05	-6.1940559445747479e-05
2.9999999999999999e-02	4.0000000000000001e-02	-8.6141838570792802e-05	-7.6966079031349669e-05
2.9999999999999999e-02	5.0000000000000003e-02	-1.0261871149011299e-04	-9.1687848665471914e-05
2.9999999999999999e-02	5.9999999999999998e-02	-1.1869059523721914e-04	-1.0604776824910517e-04
2.9999999999999999e-02	7.0000000000000007e-02	-1.3429406142950813e-04	-1.1998916574007598e-04
2.9999999999999999e-02	8.0000000000000002e-02	-1.4936753031444540e-04	-1.3345702081170617e-04
2.9999999999999999e-02	8.9999999999999997e-02	-1.6385151379675722e-04	-1.4639818199290578e-04
2.9999999999999999e-02	1.0000000000000001e-01	-1.7768885021076939e-04	-1.5876157643274669e-04
2.9999999999999999e-02	1.1000000000000000e-01	-1.9082492991131812e-04	-1.7049841146167253e-04
2.9999999999999999e-02	1.2000000000000000e-01	-2.0320791079310127e-04	-1.8156236715387408e-04
2.9999999999999999e-02	1.3000000000000000e-01	-2.1478892288786069e-04	-1.9190977913087468e-04
2.9999999999999999e-02	1.4000000000000001e-01	-2.2552226123168423e-04	-2.0149981088488401e-04
2.9999999999999999e-02	1.4999999999999999e-01	-2.3536556624177338e-04	-2.1029461494183772e-04
2.9999999999999999e-02	1.6000000000000000e-01	-2.4427999089023122e-04	-2.1825948222808686e-04
2.9999999999999999e-02	1.7000000000000001e-01	-2.5223035401550424e-04	-2.2536297905125424e-04
2.9999999999999999e-02	1.7999999999999999e-01	-2.5918527916662953e-04	-2.3157707115465791e-04
2.9999999999999999e-02	1.9000000000000000e-01	-2.6511731843128480e-04	-2.3687723435571433e-04
2.9999999999999999e-02	2.0000000000000001e-01	-2.7000306076071585e-04	-2.4124255133168318e-04
2.9999999999999999e-02	2.0999999999999999e-01	-2.7382322436200838e-04	-2.4465579417078391e-04
2.9999999999999999e-02	2.2000000000000000e-01	-2.7656273279469721e-04	-2.4710349236289301e-04
2.9999999999999999e-02	2.3000000000000001e-01	-2.7821077447046598e-04	-2.4857598596149302e-04